<?xml version="1.0" encoding="UTF-8"?>

<!-- generated on 2023-11-22 17:49:18 by Eclipse SUMO GUI Version 1.12.0
<configuration xmlns:xsi="http://www.w3.org/2001/XMLSchema-instance" xsi:noNamespaceSchemaLocation="http://sumo.dlr.de/xsd/sumoConfiguration.xsd">

    <input>
        <net-file value="cross.net.xml"/>
        <route-files value="cross.rou.xml"/>
        <additional-files value="cross.det.xml"/>
    </input>

    <output>
        <tripinfo-output value="tripinfo.xml"/>
    </output>

    <time>
        <begin value="0"/>
    </time>

    <report>
        <verbose value="true"/>
        <no-step-log value="true"/>
    </report>

    <traci_server>
        <remote-port value="47651"/>
    </traci_server>

</configuration>
-->

<tripinfos xmlns:xsi="http://www.w3.org/2001/XMLSchema-instance" xsi:noNamespaceSchemaLocation="http://sumo.dlr.de/xsd/tripinfo_file.xsd">
    <tripinfo id="right_2" depart="6.00" departLane="1i_1" departPos="5.10" departSpeed="0.00" departDelay="0.00" arrival="92.00" arrivalLane="2o_0" arrivalPos="496.00" arrivalSpeed="11.02" duration="86.00" routeLength="994.90" waitingTime="0.00" waitingCount="0" stopTime="0.00" timeLoss="15.97" rerouteNo="0" devices="tripinfo_right_2" vType="passenger" speedFactor="1.01" vaporized=""/>
    <tripinfo id="down_0" depart="0.00" departLane="4i_0" departPos="5.10" departSpeed="0.00" departDelay="0.00" arrival="142.00" arrivalLane="3o_0" arrivalPos="489.60" arrivalSpeed="11.53" duration="142.00" routeLength="994.90" waitingTime="46.00" waitingCount="1" stopTime="0.00" timeLoss="75.45" rerouteNo="0" devices="tripinfo_down_0" vType="passenger" speedFactor="1.06" vaporized=""/>
    <tripinfo id="down_4" depart="33.00" departLane="4i_1" departPos="5.10" departSpeed="0.00" departDelay="0.00" arrival="145.00" arrivalLane="3o_0" arrivalPos="489.60" arrivalSpeed="11.27" duration="112.00" routeLength="994.90" waitingTime="7.00" waitingCount="1" stopTime="0.00" timeLoss="43.70" rerouteNo="0" devices="tripinfo_down_4" vType="passenger" speedFactor="1.03" vaporized=""/>
    <tripinfo id="down_1" depart="4.00" departLane="4i_1" departPos="5.10" departSpeed="0.00" departDelay="0.00" arrival="147.00" arrivalLane="3o_1" arrivalPos="489.60" arrivalSpeed="10.11" duration="143.00" routeLength="994.90" waitingTime="40.00" waitingCount="1" stopTime="0.00" timeLoss="67.24" rerouteNo="0" devices="tripinfo_down_1" vType="passenger" speedFactor="0.94" vaporized=""/>
    <tripinfo id="down_3" depart="9.00" departLane="4i_1" departPos="5.10" departSpeed="0.00" departDelay="0.00" arrival="147.00" arrivalLane="3o_0" arrivalPos="489.60" arrivalSpeed="11.77" duration="138.00" routeLength="994.90" waitingTime="38.00" waitingCount="1" stopTime="0.00" timeLoss="72.68" rerouteNo="0" devices="tripinfo_down_3" vType="passenger" speedFactor="1.08" vaporized=""/>
    <tripinfo id="down_13" depart="134.00" departLane="4i_1" departPos="5.10" departSpeed="0.00" departDelay="0.00" arrival="231.00" arrivalLane="3o_0" arrivalPos="489.60" arrivalSpeed="12.16" duration="97.00" routeLength="994.90" waitingTime="2.00" waitingCount="1" stopTime="0.00" timeLoss="33.82" rerouteNo="0" devices="tripinfo_down_13" vType="passenger" speedFactor="1.12" vaporized=""/>
    <tripinfo id="down_15" depart="148.00" departLane="4i_1" departPos="5.10" departSpeed="0.00" departDelay="0.00" arrival="240.00" arrivalLane="3o_0" arrivalPos="489.60" arrivalSpeed="10.10" duration="92.00" routeLength="994.90" waitingTime="0.00" waitingCount="0" stopTime="0.00" timeLoss="15.70" rerouteNo="0" devices="tripinfo_down_15" vType="passenger" speedFactor="0.93" vaporized=""/>
    <tripinfo id="down_20" depart="207.00" departLane="4i_1" departPos="5.10" departSpeed="0.00" departDelay="0.00" arrival="323.00" arrivalLane="3o_0" arrivalPos="489.60" arrivalSpeed="11.21" duration="116.00" routeLength="994.90" waitingTime="18.00" waitingCount="1" stopTime="0.00" timeLoss="46.87" rerouteNo="0" devices="tripinfo_down_20" vType="passenger" speedFactor="1.02" vaporized=""/>
    <tripinfo id="down_21" depart="213.00" departLane="4i_1" departPos="5.10" departSpeed="0.00" departDelay="0.00" arrival="324.00" arrivalLane="3o_0" arrivalPos="489.60" arrivalSpeed="11.17" duration="111.00" routeLength="994.90" waitingTime="15.00" waitingCount="1" stopTime="0.00" timeLoss="40.94" rerouteNo="0" devices="tripinfo_down_21" vType="passenger" speedFactor="1.01" vaporized=""/>
    <tripinfo id="down_22" depart="240.00" departLane="4i_1" departPos="5.10" departSpeed="0.00" departDelay="0.00" arrival="329.00" arrivalLane="3o_0" arrivalPos="489.60" arrivalSpeed="10.71" duration="89.00" routeLength="994.90" waitingTime="0.00" waitingCount="0" stopTime="0.00" timeLoss="16.43" rerouteNo="0" devices="tripinfo_down_22" vType="passenger" speedFactor="0.98" vaporized=""/>
    <tripinfo id="down_23" depart="246.00" departLane="4i_0" departPos="5.10" departSpeed="0.00" departDelay="0.00" arrival="341.00" arrivalLane="3o_0" arrivalPos="489.60" arrivalSpeed="9.84" duration="95.00" routeLength="994.90" waitingTime="0.00" waitingCount="0" stopTime="0.00" timeLoss="15.76" rerouteNo="0" devices="tripinfo_down_23" vType="passenger" speedFactor="0.89" vaporized=""/>
    <tripinfo id="down_24" depart="250.00" departLane="4i_1" departPos="5.10" departSpeed="0.00" departDelay="0.00" arrival="350.00" arrivalLane="3o_0" arrivalPos="489.60" arrivalSpeed="9.17" duration="100.00" routeLength="994.90" waitingTime="0.00" waitingCount="0" stopTime="0.00" timeLoss="14.34" rerouteNo="0" devices="tripinfo_down_24" vType="passenger" speedFactor="0.83" vaporized=""/>
    <tripinfo id="right_5" depart="50.00" departLane="1i_0" departPos="5.10" departSpeed="0.00" departDelay="0.00" arrival="406.00" arrivalLane="2o_0" arrivalPos="496.00" arrivalSpeed="2.94" duration="356.00" routeLength="994.90" waitingTime="0.00" waitingCount="0" stopTime="0.00" timeLoss="24.15" rerouteNo="0" devices="tripinfo_right_5" vType="attacker" speedFactor="0.83" vaporized=""/>
    <tripinfo id="right_8" depart="50.00" departLane="1i_1" departPos="5.10" departSpeed="0.00" departDelay="0.00" arrival="407.00" arrivalLane="2o_0" arrivalPos="496.00" arrivalSpeed="2.98" duration="357.00" routeLength="994.90" waitingTime="2.00" waitingCount="1" stopTime="0.00" timeLoss="24.55" rerouteNo="0" devices="tripinfo_right_8" vType="ghost" speedFactor="0.94" vaporized=""/>
    <tripinfo id="down_30" depart="294.00" departLane="4i_1" departPos="5.10" departSpeed="0.00" departDelay="0.00" arrival="409.00" arrivalLane="3o_0" arrivalPos="489.60" arrivalSpeed="13.00" duration="115.00" routeLength="994.90" waitingTime="21.00" waitingCount="1" stopTime="0.00" timeLoss="54.41" rerouteNo="0" devices="tripinfo_down_30" vType="passenger" speedFactor="1.18" vaporized=""/>
    <tripinfo id="right_7" depart="56.00" departLane="1i_0" departPos="5.10" departSpeed="0.00" departDelay="6.00" arrival="410.00" arrivalLane="2o_0" arrivalPos="496.00" arrivalSpeed="3.00" duration="354.00" routeLength="994.90" waitingTime="0.00" waitingCount="0" stopTime="0.00" timeLoss="22.15" rerouteNo="0" devices="tripinfo_right_7" vType="ghost" speedFactor="0.89" vaporized=""/>
    <tripinfo id="right_6" depart="56.00" departLane="1i_1" departPos="5.10" departSpeed="0.00" departDelay="6.00" arrival="411.00" arrivalLane="2o_1" arrivalPos="496.00" arrivalSpeed="2.90" duration="355.00" routeLength="994.90" waitingTime="0.00" waitingCount="0" stopTime="0.00" timeLoss="22.74" rerouteNo="0" devices="tripinfo_right_6" vType="ghost" speedFactor="1.05" vaporized=""/>
    <tripinfo id="right_10" depart="62.00" departLane="1i_0" departPos="5.10" departSpeed="0.00" departDelay="12.00" arrival="414.00" arrivalLane="2o_0" arrivalPos="496.00" arrivalSpeed="2.97" duration="352.00" routeLength="994.90" waitingTime="0.00" waitingCount="0" stopTime="0.00" timeLoss="20.20" rerouteNo="0" devices="tripinfo_right_10" vType="ghost" speedFactor="1.09" vaporized=""/>
    <tripinfo id="right_9" depart="62.00" departLane="1i_1" departPos="5.10" departSpeed="0.00" departDelay="12.00" arrival="415.00" arrivalLane="2o_1" arrivalPos="496.00" arrivalSpeed="2.71" duration="353.00" routeLength="994.90" waitingTime="0.00" waitingCount="0" stopTime="0.00" timeLoss="21.10" rerouteNo="0" devices="tripinfo_right_9" vType="ghost" speedFactor="0.86" vaporized=""/>
    <tripinfo id="down_32" depart="318.00" departLane="4i_1" departPos="5.10" departSpeed="0.00" departDelay="0.00" arrival="416.00" arrivalLane="3o_1" arrivalPos="489.60" arrivalSpeed="11.08" duration="98.00" routeLength="994.90" waitingTime="0.00" waitingCount="0" stopTime="0.00" timeLoss="27.98" rerouteNo="0" devices="tripinfo_down_32" vType="passenger" speedFactor="1.01" vaporized=""/>
    <tripinfo id="right_11" depart="68.00" departLane="1i_0" departPos="5.10" departSpeed="0.00" departDelay="6.00" arrival="417.00" arrivalLane="2o_0" arrivalPos="496.00" arrivalSpeed="4.35" duration="349.00" routeLength="994.90" waitingTime="0.00" waitingCount="0" stopTime="0.00" timeLoss="280.18" rerouteNo="0" devices="tripinfo_right_11" vType="passenger" speedFactor="1.03" vaporized=""/>
    <tripinfo id="down_29" depart="271.00" departLane="4i_0" departPos="5.10" departSpeed="0.00" departDelay="0.00" arrival="417.00" arrivalLane="3o_0" arrivalPos="489.60" arrivalSpeed="10.32" duration="146.00" routeLength="994.90" waitingTime="44.00" waitingCount="1" stopTime="0.00" timeLoss="69.85" rerouteNo="0" devices="tripinfo_down_29" vType="passenger" speedFactor="0.93" vaporized=""/>
    <tripinfo id="right_12" depart="68.00" departLane="1i_1" departPos="5.10" departSpeed="0.00" departDelay="5.00" arrival="418.00" arrivalLane="2o_1" arrivalPos="496.00" arrivalSpeed="4.66" duration="350.00" routeLength="994.90" waitingTime="0.00" waitingCount="0" stopTime="0.00" timeLoss="282.33" rerouteNo="0" devices="tripinfo_right_12" vType="passenger" speedFactor="1.05" vaporized=""/>
    <tripinfo id="right_16" depart="162.00" departLane="1i_1" departPos="5.10" departSpeed="0.00" departDelay="0.00" arrival="420.00" arrivalLane="2o_0" arrivalPos="496.00" arrivalSpeed="5.42" duration="258.00" routeLength="994.90" waitingTime="0.00" waitingCount="0" stopTime="0.00" timeLoss="177.36" rerouteNo="0" devices="tripinfo_right_16" vType="passenger" speedFactor="0.88" vaporized=""/>
    <tripinfo id="right_14" depart="145.00" departLane="1i_0" departPos="5.10" departSpeed="0.00" departDelay="0.00" arrival="421.00" arrivalLane="2o_1" arrivalPos="496.00" arrivalSpeed="5.85" duration="276.00" routeLength="994.90" waitingTime="0.00" waitingCount="0" stopTime="0.00" timeLoss="204.30" rerouteNo="0" devices="tripinfo_right_14" vType="passenger" speedFactor="0.99" vaporized=""/>
    <tripinfo id="right_18" depart="184.00" departLane="1i_1" departPos="5.10" departSpeed="0.00" departDelay="0.00" arrival="422.00" arrivalLane="2o_0" arrivalPos="496.00" arrivalSpeed="5.57" duration="238.00" routeLength="994.90" waitingTime="0.00" waitingCount="0" stopTime="0.00" timeLoss="162.61" rerouteNo="0" devices="tripinfo_right_18" vType="passenger" speedFactor="0.94" vaporized=""/>
    <tripinfo id="right_17" depart="171.00" departLane="1i_1" departPos="5.10" departSpeed="0.00" departDelay="0.00" arrival="423.00" arrivalLane="2o_1" arrivalPos="496.00" arrivalSpeed="5.89" duration="252.00" routeLength="994.90" waitingTime="0.00" waitingCount="0" stopTime="0.00" timeLoss="176.81" rerouteNo="0" devices="tripinfo_right_17" vType="passenger" speedFactor="0.94" vaporized=""/>
    <tripinfo id="right_19" depart="197.00" departLane="1i_0" departPos="5.10" departSpeed="0.00" departDelay="0.00" arrival="425.00" arrivalLane="2o_1" arrivalPos="496.00" arrivalSpeed="6.63" duration="228.00" routeLength="994.90" waitingTime="0.00" waitingCount="0" stopTime="0.00" timeLoss="166.94" rerouteNo="0" devices="tripinfo_right_19" vType="passenger" speedFactor="1.16" vaporized=""/>
    <tripinfo id="right_26" depart="254.00" departLane="1i_0" departPos="5.10" departSpeed="0.00" departDelay="0.00" arrival="425.00" arrivalLane="2o_0" arrivalPos="496.00" arrivalSpeed="6.73" duration="171.00" routeLength="994.90" waitingTime="15.00" waitingCount="1" stopTime="0.00" timeLoss="93.65" rerouteNo="0" devices="tripinfo_right_26" vType="passenger" speedFactor="0.92" vaporized=""/>
    <tripinfo id="right_25" depart="252.00" departLane="1i_1" departPos="5.10" departSpeed="0.00" departDelay="0.00" arrival="427.00" arrivalLane="2o_1" arrivalPos="496.00" arrivalSpeed="7.16" duration="175.00" routeLength="994.90" waitingTime="17.00" waitingCount="1" stopTime="0.00" timeLoss="94.04" rerouteNo="0" devices="tripinfo_right_25" vType="passenger" speedFactor="0.87" vaporized=""/>
    <tripinfo id="right_28" depart="264.00" departLane="1i_0" departPos="5.10" departSpeed="0.00" departDelay="0.00" arrival="427.00" arrivalLane="2o_0" arrivalPos="496.00" arrivalSpeed="6.81" duration="163.00" routeLength="994.90" waitingTime="4.00" waitingCount="1" stopTime="0.00" timeLoss="100.47" rerouteNo="0" devices="tripinfo_right_28" vType="passenger" speedFactor="1.13" vaporized=""/>
    <tripinfo id="right_31" depart="299.00" departLane="1i_0" departPos="5.10" departSpeed="0.00" departDelay="0.00" arrival="429.00" arrivalLane="2o_0" arrivalPos="496.00" arrivalSpeed="7.42" duration="130.00" routeLength="994.90" waitingTime="0.00" waitingCount="0" stopTime="0.00" timeLoss="68.67" rerouteNo="0" devices="tripinfo_right_31" vType="passenger" speedFactor="1.15" vaporized=""/>
    <tripinfo id="right_27" depart="259.00" departLane="1i_0" departPos="5.10" departSpeed="0.00" departDelay="0.00" arrival="430.00" arrivalLane="2o_1" arrivalPos="496.00" arrivalSpeed="8.13" duration="171.00" routeLength="994.90" waitingTime="13.00" waitingCount="1" stopTime="0.00" timeLoss="96.07" rerouteNo="0" devices="tripinfo_right_27" vType="passenger" speedFactor="0.95" vaporized=""/>
</tripinfos>
