<?xml version="1.0" encoding="UTF-8"?>

<!-- generated on 2023-11-15 19:26:45 by Eclipse SUMO GUI Version 1.12.0
<configuration xmlns:xsi="http://www.w3.org/2001/XMLSchema-instance" xsi:noNamespaceSchemaLocation="http://sumo.dlr.de/xsd/sumoConfiguration.xsd">

    <input>
        <net-file value="/home/user/Desktop/simulations/eintersection/cross.net.xml"/>
        <route-files value="/home/user/Desktop/simulations/eintersection/cross.rou.xml"/>
        <additional-files value="/home/user/Desktop/simulations/eintersection/cross.det.xml"/>
    </input>

    <time>
        <begin value="0"/>
    </time>

    <report>
        <verbose value="true"/>
        <no-step-log value="true"/>
    </report>

</configuration>
-->

<detector xmlns:xsi="http://www.w3.org/2001/XMLSchema-instance" xsi:noNamespaceSchemaLocation="http://sumo.dlr.de/xsd/det_e1_file.xsd">
</detector>
