<?xml version="1.0" encoding="UTF-8"?>

<!-- generated on 2023-10-29 22:22:41 by Eclipse SUMO GUI Version 1.18.0
<configuration xmlns:xsi="http://www.w3.org/2001/XMLSchema-instance" xsi:noNamespaceSchemaLocation="http://sumo.dlr.de/xsd/sumoConfiguration.xsd">

    <input>
        <net-file value="data/cross.net.xml"/>
        <route-files value="data/cross.rou.xml"/>
        <additional-files value="data/cross.det.xml"/>
    </input>

    <output>
        <tripinfo-output value="tripinfo.xml"/>
    </output>

    <time>
        <begin value="0"/>
    </time>

    <report>
        <verbose value="true"/>
        <no-step-log value="true"/>
    </report>

    <traci_server>
        <remote-port value="50847"/>
    </traci_server>

</configuration>
-->

<tripinfos xmlns:xsi="http://www.w3.org/2001/XMLSchema-instance" xsi:noNamespaceSchemaLocation="http://sumo.dlr.de/xsd/tripinfo_file.xsd">
    <tripinfo id="down_0" depart="3.00" departLane="54o_0" departPos="5.10" departSpeed="0.00" departDelay="0.00" arrival="143.00" arrivalLane="53i_0" arrivalPos="6.00" arrivalSpeed="11.99" duration="140.00" routeLength="1016.11" waitingTime="39.00" waitingCount="1" stopTime="0.00" timeLoss="62.94" rerouteNo="0" devices="tripinfo_down_0" vType="typeNS" speedFactor="1.06" vaporized=""/>
    <tripinfo id="down_1" depart="8.00" departLane="54o_0" departPos="5.10" departSpeed="0.00" departDelay="1.00" arrival="150.00" arrivalLane="53i_0" arrivalPos="6.00" arrivalSpeed="10.76" duration="142.00" routeLength="1016.11" waitingTime="34.00" waitingCount="1" stopTime="0.00" timeLoss="59.54" rerouteNo="0" devices="tripinfo_down_1" vType="typeNS" speedFactor="0.94" vaporized=""/>
    <tripinfo id="down_2" depart="34.00" departLane="54o_0" departPos="5.10" departSpeed="0.00" departDelay="0.00" arrival="152.00" arrivalLane="53i_0" arrivalPos="6.00" arrivalSpeed="11.22" duration="118.00" routeLength="1016.11" waitingTime="11.00" waitingCount="1" stopTime="0.00" timeLoss="38.98" rerouteNo="0" devices="tripinfo_down_2" vType="typeNS" speedFactor="1.01" vaporized=""/>
    <tripinfo id="down_5" depart="61.00" departLane="54o_0" departPos="5.10" departSpeed="0.00" departDelay="0.00" arrival="164.00" arrivalLane="53i_0" arrivalPos="6.00" arrivalSpeed="9.96" duration="103.00" routeLength="1016.11" waitingTime="0.00" waitingCount="0" stopTime="0.00" timeLoss="14.28" rerouteNo="0" devices="tripinfo_down_5" vType="typeNS" speedFactor="0.83" vaporized=""/>
    <tripinfo id="right_3" depart="42.00" departLane="51o_0" departPos="5.10" departSpeed="0.00" departDelay="0.00" arrival="188.00" arrivalLane="52i_0" arrivalPos="6.00" arrivalSpeed="12.53" duration="146.00" routeLength="1016.11" waitingTime="46.00" waitingCount="1" stopTime="0.00" timeLoss="69.51" rerouteNo="0" devices="tripinfo_right_3" vType="typeWE" speedFactor="1.08" vaporized=""/>
    <tripinfo id="right_4" depart="49.00" departLane="51o_0" departPos="5.10" departSpeed="0.00" departDelay="0.00" arrival="192.00" arrivalLane="52i_0" arrivalPos="6.00" arrivalSpeed="11.73" duration="143.00" routeLength="1016.11" waitingTime="39.00" waitingCount="1" stopTime="0.00" timeLoss="64.97" rerouteNo="0" devices="tripinfo_right_4" vType="typeWE" speedFactor="1.03" vaporized=""/>
    <tripinfo id="right_6" depart="97.00" departLane="51o_0" departPos="6.00" departSpeed="0.00" departDelay="0.00" arrival="195.00" arrivalLane="52i_0" arrivalPos="6.00" arrivalSpeed="11.25" duration="98.00" routeLength="1015.21" waitingTime="0.00" waitingCount="0" stopTime="0.00" timeLoss="26.44" rerouteNo="0" devices="tripinfo_right_6" vType="emerWE" speedFactor="1.00" vaporized=""/>
    <tripinfo id="right_7" depart="111.00" departLane="51o_0" departPos="5.10" departSpeed="0.00" departDelay="0.00" arrival="203.00" arrivalLane="52i_0" arrivalPos="6.00" arrivalSpeed="12.02" duration="92.00" routeLength="1016.11" waitingTime="0.00" waitingCount="0" stopTime="0.00" timeLoss="14.20" rerouteNo="0" devices="tripinfo_right_7" vType="typeWE" speedFactor="1.05" vaporized=""/>
    <tripinfo id="right_8" depart="116.00" departLane="51o_0" departPos="5.10" departSpeed="0.00" departDelay="2.00" arrival="216.00" arrivalLane="52i_0" arrivalPos="6.00" arrivalSpeed="10.27" duration="100.00" routeLength="1016.11" waitingTime="1.00" waitingCount="1" stopTime="0.00" timeLoss="14.77" rerouteNo="0" devices="tripinfo_right_8" vType="typeWE" speedFactor="0.89" vaporized=""/>
    <tripinfo id="right_9" depart="122.00" departLane="51o_0" departPos="5.10" departSpeed="0.00" departDelay="5.00" arrival="219.00" arrivalLane="52i_0" arrivalPos="6.00" arrivalSpeed="11.68" duration="97.00" routeLength="1016.11" waitingTime="0.00" waitingCount="0" stopTime="0.00" timeLoss="14.07" rerouteNo="0" devices="tripinfo_right_9" vType="typeWE" speedFactor="0.94" vaporized=""/>
    <tripinfo id="down_10" depart="123.00" departLane="54o_0" departPos="5.10" departSpeed="0.00" departDelay="0.00" arrival="242.00" arrivalLane="53i_0" arrivalPos="6.00" arrivalSpeed="10.50" duration="119.00" routeLength="1016.11" waitingTime="9.00" waitingCount="1" stopTime="0.00" timeLoss="32.09" rerouteNo="0" devices="tripinfo_down_10" vType="typeNS" speedFactor="0.86" vaporized=""/>
    <tripinfo id="down_11" depart="128.00" departLane="54o_0" departPos="5.10" departSpeed="0.00" departDelay="1.00" arrival="244.00" arrivalLane="53i_0" arrivalPos="6.00" arrivalSpeed="11.22" duration="116.00" routeLength="1016.11" waitingTime="5.00" waitingCount="1" stopTime="0.00" timeLoss="39.99" rerouteNo="0" devices="tripinfo_down_11" vType="typeNS" speedFactor="1.09" vaporized=""/>
    <tripinfo id="down_13" depart="139.00" departLane="54o_0" departPos="5.10" departSpeed="0.00" departDelay="0.00" arrival="245.00" arrivalLane="53i_0" arrivalPos="6.00" arrivalSpeed="11.28" duration="106.00" routeLength="1016.11" waitingTime="0.00" waitingCount="0" stopTime="0.00" timeLoss="28.88" rerouteNo="0" devices="tripinfo_down_13" vType="typeNS" speedFactor="1.05" vaporized=""/>
    <tripinfo id="right_12" depart="136.00" departLane="51o_0" departPos="5.10" departSpeed="0.00" departDelay="0.00" arrival="280.00" arrivalLane="52i_0" arrivalPos="6.00" arrivalSpeed="11.78" duration="144.00" routeLength="1016.11" waitingTime="40.00" waitingCount="1" stopTime="0.00" timeLoss="65.79" rerouteNo="0" devices="tripinfo_right_12" vType="typeWE" speedFactor="1.03" vaporized=""/>
    <tripinfo id="right_14" depart="141.00" departLane="51o_0" departPos="5.10" departSpeed="0.00" departDelay="1.00" arrival="282.00" arrivalLane="52i_0" arrivalPos="6.00" arrivalSpeed="12.16" duration="141.00" routeLength="1016.11" waitingTime="37.00" waitingCount="1" stopTime="0.00" timeLoss="66.20" rerouteNo="0" devices="tripinfo_right_14" vType="typeWE" speedFactor="1.12" vaporized=""/>
    <tripinfo id="right_15" depart="158.00" departLane="51o_0" departPos="5.10" departSpeed="0.00" departDelay="0.00" arrival="286.00" arrivalLane="52i_0" arrivalPos="6.00" arrivalSpeed="11.85" duration="128.00" routeLength="1016.11" waitingTime="22.00" waitingCount="1" stopTime="0.00" timeLoss="47.97" rerouteNo="0" devices="tripinfo_right_15" vType="typeWE" speedFactor="0.99" vaporized=""/>
    <tripinfo id="right_17" depart="198.00" departLane="51o_0" departPos="5.10" departSpeed="0.00" departDelay="0.00" arrival="298.00" arrivalLane="52i_0" arrivalPos="6.00" arrivalSpeed="10.67" duration="100.00" routeLength="1016.11" waitingTime="0.00" waitingCount="0" stopTime="0.00" timeLoss="13.83" rerouteNo="0" devices="tripinfo_right_17" vType="typeWE" speedFactor="0.88" vaporized=""/>
    <tripinfo id="down_16" depart="186.00" departLane="54o_0" departPos="5.10" departSpeed="0.00" departDelay="0.00" arrival="329.00" arrivalLane="53i_0" arrivalPos="6.00" arrivalSpeed="10.81" duration="143.00" routeLength="1016.11" waitingTime="35.00" waitingCount="1" stopTime="0.00" timeLoss="59.92" rerouteNo="0" devices="tripinfo_down_16" vType="typeNS" speedFactor="0.93" vaporized=""/>
    <tripinfo id="down_18" depart="198.00" departLane="54o_0" departPos="5.10" departSpeed="0.00" departDelay="0.00" arrival="331.00" arrivalLane="53i_0" arrivalPos="6.00" arrivalSpeed="11.57" duration="133.00" routeLength="1016.11" waitingTime="26.00" waitingCount="1" stopTime="0.00" timeLoss="50.67" rerouteNo="0" devices="tripinfo_down_18" vType="typeNS" speedFactor="0.94" vaporized=""/>
    <tripinfo id="down_19" depart="203.00" departLane="54o_0" departPos="5.10" departSpeed="0.00" departDelay="4.00" arrival="333.00" arrivalLane="53i_0" arrivalPos="6.00" arrivalSpeed="11.52" duration="130.00" routeLength="1016.11" waitingTime="21.00" waitingCount="1" stopTime="0.00" timeLoss="47.31" rerouteNo="0" devices="tripinfo_down_19" vType="typeNS" speedFactor="0.94" vaporized=""/>
    <tripinfo id="down_20" depart="208.00" departLane="54o_0" departPos="5.10" departSpeed="0.00" departDelay="3.00" arrival="334.00" arrivalLane="53i_0" arrivalPos="6.00" arrivalSpeed="11.65" duration="126.00" routeLength="1016.11" waitingTime="18.00" waitingCount="1" stopTime="0.00" timeLoss="52.84" rerouteNo="0" devices="tripinfo_down_20" vType="typeNS" speedFactor="1.16" vaporized=""/>
    <tripinfo id="down_21" depart="241.00" departLane="54o_0" departPos="5.10" departSpeed="0.00" departDelay="0.00" arrival="336.00" arrivalLane="53i_0" arrivalPos="6.00" arrivalSpeed="11.67" duration="95.00" routeLength="1016.11" waitingTime="0.00" waitingCount="0" stopTime="0.00" timeLoss="16.31" rerouteNo="0" devices="tripinfo_down_21" vType="typeNS" speedFactor="1.02" vaporized=""/>
    <tripinfo id="down_22" depart="247.00" departLane="54o_0" departPos="5.10" departSpeed="0.00" departDelay="5.00" arrival="339.00" arrivalLane="53i_0" arrivalPos="6.00" arrivalSpeed="11.75" duration="92.00" routeLength="1016.11" waitingTime="0.00" waitingCount="0" stopTime="0.00" timeLoss="13.14" rerouteNo="0" devices="tripinfo_down_22" vType="typeNS" speedFactor="1.01" vaporized=""/>
    <tripinfo id="right_23" depart="272.00" departLane="51o_0" departPos="5.10" departSpeed="0.00" departDelay="0.00" arrival="367.00" arrivalLane="52i_0" arrivalPos="6.00" arrivalSpeed="11.33" duration="95.00" routeLength="1016.11" waitingTime="0.00" waitingCount="0" stopTime="0.00" timeLoss="14.52" rerouteNo="0" devices="tripinfo_right_23" vType="typeWE" speedFactor="0.97" vaporized=""/>
    <tripinfo id="down_24" depart="273.00" departLane="54o_0" departPos="5.10" departSpeed="0.00" departDelay="0.00" arrival="420.00" arrivalLane="53i_0" arrivalPos="6.00" arrivalSpeed="10.16" duration="147.00" routeLength="1016.11" waitingTime="38.00" waitingCount="1" stopTime="0.00" timeLoss="62.00" rerouteNo="0" devices="tripinfo_down_24" vType="typeNS" speedFactor="0.89" vaporized=""/>
    <tripinfo id="down_25" depart="278.00" departLane="54o_0" departPos="5.10" departSpeed="0.00" departDelay="3.00" arrival="426.00" arrivalLane="53i_0" arrivalPos="6.00" arrivalSpeed="10.36" duration="148.00" routeLength="1016.11" waitingTime="35.00" waitingCount="1" stopTime="0.00" timeLoss="59.11" rerouteNo="0" devices="tripinfo_down_25" vType="typeNS" speedFactor="0.83" vaporized=""/>
    <tripinfo id="down_26" depart="292.00" departLane="54o_0" departPos="5.10" departSpeed="0.00" departDelay="0.00" arrival="428.00" arrivalLane="53i_0" arrivalPos="6.00" arrivalSpeed="10.46" duration="136.00" routeLength="1016.11" waitingTime="23.00" waitingCount="1" stopTime="0.00" timeLoss="49.99" rerouteNo="0" devices="tripinfo_down_26" vType="typeNS" speedFactor="0.87" vaporized=""/>
    <tripinfo id="down_27" depart="297.00" departLane="54o_0" departPos="5.10" departSpeed="0.00" departDelay="3.00" arrival="430.00" arrivalLane="53i_0" arrivalPos="6.00" arrivalSpeed="11.05" duration="133.00" routeLength="1016.11" waitingTime="19.00" waitingCount="1" stopTime="0.00" timeLoss="49.24" rerouteNo="0" devices="tripinfo_down_27" vType="typeNS" speedFactor="0.92" vaporized=""/>
    <tripinfo id="down_28" depart="329.00" departLane="54o_0" departPos="5.10" departSpeed="0.00" departDelay="0.00" arrival="431.00" arrivalLane="53i_0" arrivalPos="6.00" arrivalSpeed="11.03" duration="102.00" routeLength="1016.11" waitingTime="0.00" waitingCount="0" stopTime="0.00" timeLoss="20.45" rerouteNo="0" devices="tripinfo_down_28" vType="typeNS" speedFactor="0.95" vaporized=""/>
    <tripinfo id="down_30" depart="346.00" departLane="54o_0" departPos="5.10" departSpeed="0.00" departDelay="0.00" arrival="443.00" arrivalLane="53i_0" arrivalPos="6.00" arrivalSpeed="11.72" duration="97.00" routeLength="1016.11" waitingTime="0.00" waitingCount="0" stopTime="0.00" timeLoss="14.19" rerouteNo="0" devices="tripinfo_down_30" vType="typeNS" speedFactor="0.93" vaporized=""/>
    <tripinfo id="down_31" depart="353.00" departLane="54o_0" departPos="5.10" departSpeed="0.00" departDelay="0.00" arrival="444.00" arrivalLane="53i_0" arrivalPos="6.00" arrivalSpeed="11.42" duration="91.00" routeLength="1016.11" waitingTime="0.00" waitingCount="0" stopTime="0.00" timeLoss="18.60" rerouteNo="0" devices="tripinfo_down_31" vType="typeNS" speedFactor="1.18" vaporized=""/>
    <tripinfo id="right_29" depart="345.00" departLane="51o_0" departPos="5.10" departSpeed="0.00" departDelay="0.00" arrival="456.00" arrivalLane="52i_0" arrivalPos="6.00" arrivalSpeed="12.96" duration="111.00" routeLength="1016.11" waitingTime="11.00" waitingCount="1" stopTime="0.00" timeLoss="36.97" rerouteNo="0" devices="tripinfo_right_29" vType="typeWE" speedFactor="1.13" vaporized=""/>
    <tripinfo id="right_32" depart="372.00" departLane="51o_0" departPos="5.10" departSpeed="0.00" departDelay="0.00" arrival="459.00" arrivalLane="52i_0" arrivalPos="6.00" arrivalSpeed="13.22" duration="87.00" routeLength="1016.11" waitingTime="0.00" waitingCount="0" stopTime="0.00" timeLoss="13.62" rerouteNo="0" devices="tripinfo_right_32" vType="typeWE" speedFactor="1.15" vaporized=""/>
    <tripinfo id="right_34" depart="379.00" departLane="51o_0" departPos="5.10" departSpeed="0.00" departDelay="0.00" arrival="465.00" arrivalLane="52i_0" arrivalPos="6.00" arrivalSpeed="13.37" duration="86.00" routeLength="1016.11" waitingTime="0.00" waitingCount="0" stopTime="0.00" timeLoss="13.30" rerouteNo="0" devices="tripinfo_right_34" vType="typeWE" speedFactor="1.17" vaporized=""/>
    <tripinfo id="right_35" depart="391.00" departLane="51o_0" departPos="5.10" departSpeed="0.00" departDelay="0.00" arrival="484.00" arrivalLane="52i_0" arrivalPos="6.00" arrivalSpeed="12.03" duration="93.00" routeLength="1016.11" waitingTime="0.00" waitingCount="0" stopTime="0.00" timeLoss="12.97" rerouteNo="0" devices="tripinfo_right_35" vType="typeWE" speedFactor="0.99" vaporized=""/>
    <tripinfo id="right_36" depart="396.00" departLane="51o_0" departPos="5.10" departSpeed="0.00" departDelay="2.00" arrival="489.00" arrivalLane="52i_0" arrivalPos="6.00" arrivalSpeed="12.28" duration="93.00" routeLength="1016.11" waitingTime="0.00" waitingCount="0" stopTime="0.00" timeLoss="13.89" rerouteNo="0" devices="tripinfo_right_36" vType="typeWE" speedFactor="1.02" vaporized=""/>
    <tripinfo id="down_33" depart="372.00" departLane="54o_0" departPos="5.10" departSpeed="0.00" departDelay="0.00" arrival="505.00" arrivalLane="53i_0" arrivalPos="6.00" arrivalSpeed="11.35" duration="133.00" routeLength="1016.11" waitingTime="29.00" waitingCount="1" stopTime="0.00" timeLoss="54.13" rerouteNo="0" devices="tripinfo_down_33" vType="typeNS" speedFactor="1.01" vaporized=""/>
    <tripinfo id="down_37" depart="395.00" departLane="54o_0" departPos="5.10" departSpeed="0.00" departDelay="0.00" arrival="509.00" arrivalLane="53i_0" arrivalPos="6.00" arrivalSpeed="12.06" duration="114.00" routeLength="1016.11" waitingTime="7.00" waitingCount="1" stopTime="0.00" timeLoss="33.10" rerouteNo="0" devices="tripinfo_down_37" vType="typeNS" speedFactor="0.97" vaporized=""/>
    <tripinfo id="down_40" depart="434.00" departLane="54o_0" departPos="5.10" departSpeed="0.00" departDelay="0.00" arrival="532.00" arrivalLane="53i_0" arrivalPos="6.00" arrivalSpeed="10.98" duration="98.00" routeLength="1016.11" waitingTime="0.00" waitingCount="0" stopTime="0.00" timeLoss="13.55" rerouteNo="0" devices="tripinfo_down_40" vType="typeNS" speedFactor="0.90" vaporized=""/>
    <tripinfo id="down_41" depart="439.00" departLane="54o_0" departPos="5.10" departSpeed="0.00" departDelay="0.00" arrival="534.00" arrivalLane="53i_0" arrivalPos="6.00" arrivalSpeed="11.70" duration="95.00" routeLength="1016.11" waitingTime="0.00" waitingCount="0" stopTime="0.00" timeLoss="16.39" rerouteNo="0" devices="tripinfo_down_41" vType="typeNS" speedFactor="1.03" vaporized=""/>
    <tripinfo id="right_38" depart="401.00" departLane="51o_0" departPos="5.10" departSpeed="0.00" departDelay="1.00" arrival="545.00" arrivalLane="52i_0" arrivalPos="6.00" arrivalSpeed="13.43" duration="144.00" routeLength="1016.11" waitingTime="45.00" waitingCount="1" stopTime="0.00" timeLoss="71.28" rerouteNo="0" devices="tripinfo_right_38" vType="typeWE" speedFactor="1.18" vaporized=""/>
    <tripinfo id="right_39" depart="432.00" departLane="51o_0" departPos="5.10" departSpeed="0.00" departDelay="0.00" arrival="550.00" arrivalLane="52i_0" arrivalPos="6.00" arrivalSpeed="12.49" duration="118.00" routeLength="1016.11" waitingTime="17.00" waitingCount="1" stopTime="0.00" timeLoss="42.29" rerouteNo="0" devices="tripinfo_right_39" vType="typeWE" speedFactor="1.10" vaporized=""/>
    <tripinfo id="right_42" depart="446.00" departLane="51o_0" departPos="6.00" departSpeed="0.00" departDelay="0.00" arrival="555.00" arrivalLane="52i_0" arrivalPos="6.00" arrivalSpeed="11.28" duration="109.00" routeLength="1015.21" waitingTime="7.00" waitingCount="1" stopTime="0.00" timeLoss="37.37" rerouteNo="0" devices="tripinfo_right_42" vType="emerWE" speedFactor="1.00" vaporized=""/>
    <tripinfo id="right_44" depart="452.00" departLane="51o_0" departPos="5.10" departSpeed="0.00" departDelay="0.00" arrival="557.00" arrivalLane="52i_0" arrivalPos="6.00" arrivalSpeed="12.31" duration="105.00" routeLength="1016.11" waitingTime="0.00" waitingCount="0" stopTime="0.00" timeLoss="29.14" rerouteNo="0" devices="tripinfo_right_44" vType="typeWE" speedFactor="1.09" vaporized=""/>
    <tripinfo id="down_43" depart="448.00" departLane="54o_0" departPos="5.10" departSpeed="0.00" departDelay="0.00" arrival="596.00" arrivalLane="53i_0" arrivalPos="6.00" arrivalSpeed="11.10" duration="148.00" routeLength="1016.11" waitingTime="43.00" waitingCount="1" stopTime="0.00" timeLoss="67.01" rerouteNo="0" devices="tripinfo_down_43" vType="typeNS" speedFactor="0.96" vaporized=""/>
    <tripinfo id="down_45" depart="454.00" departLane="54o_0" departPos="5.10" departSpeed="0.00" departDelay="2.00" arrival="598.00" arrivalLane="53i_0" arrivalPos="6.00" arrivalSpeed="11.49" duration="144.00" routeLength="1016.11" waitingTime="39.00" waitingCount="1" stopTime="0.00" timeLoss="66.29" rerouteNo="0" devices="tripinfo_down_45" vType="typeNS" speedFactor="1.04" vaporized=""/>
    <tripinfo id="down_46" depart="459.00" departLane="54o_0" departPos="5.10" departSpeed="0.00" departDelay="4.00" arrival="600.00" arrivalLane="53i_0" arrivalPos="6.00" arrivalSpeed="11.83" duration="141.00" routeLength="1016.11" waitingTime="35.00" waitingCount="1" stopTime="0.00" timeLoss="63.22" rerouteNo="0" devices="tripinfo_down_46" vType="typeNS" speedFactor="1.04" vaporized=""/>
    <tripinfo id="right_47" depart="500.00" departLane="51o_0" departPos="5.10" departSpeed="0.00" departDelay="0.00" arrival="639.00" arrivalLane="52i_0" arrivalPos="6.00" arrivalSpeed="12.68" duration="139.00" routeLength="1016.11" waitingTime="36.00" waitingCount="1" stopTime="0.00" timeLoss="62.81" rerouteNo="0" devices="tripinfo_right_47" vType="typeWE" speedFactor="1.09" vaporized=""/>
    <tripinfo id="right_48" depart="505.00" departLane="51o_0" departPos="5.10" departSpeed="0.00" departDelay="0.00" arrival="644.00" arrivalLane="52i_0" arrivalPos="6.00" arrivalSpeed="11.57" duration="139.00" routeLength="1016.11" waitingTime="32.00" waitingCount="1" stopTime="0.00" timeLoss="59.08" rerouteNo="0" devices="tripinfo_right_48" vType="typeWE" speedFactor="1.00" vaporized=""/>
    <tripinfo id="right_49" depart="527.00" departLane="51o_0" departPos="5.10" departSpeed="0.00" departDelay="0.00" arrival="650.00" arrivalLane="52i_0" arrivalPos="6.00" arrivalSpeed="10.36" duration="123.00" routeLength="1016.11" waitingTime="13.00" waitingCount="1" stopTime="0.00" timeLoss="38.67" rerouteNo="0" devices="tripinfo_right_49" vType="typeWE" speedFactor="0.90" vaporized=""/>
    <tripinfo id="right_50" depart="532.00" departLane="51o_0" departPos="5.10" departSpeed="0.00" departDelay="3.00" arrival="653.00" arrivalLane="52i_0" arrivalPos="6.00" arrivalSpeed="10.17" duration="121.00" routeLength="1016.11" waitingTime="10.00" waitingCount="1" stopTime="0.00" timeLoss="35.14" rerouteNo="0" devices="tripinfo_right_50" vType="typeWE" speedFactor="0.88" vaporized=""/>
    <tripinfo id="right_51" depart="537.00" departLane="51o_0" departPos="5.10" departSpeed="0.00" departDelay="5.00" arrival="657.00" arrivalLane="52i_0" arrivalPos="6.00" arrivalSpeed="10.94" duration="120.00" routeLength="1016.11" waitingTime="5.00" waitingCount="1" stopTime="0.00" timeLoss="32.20" rerouteNo="0" devices="tripinfo_right_51" vType="typeWE" speedFactor="0.85" vaporized=""/>
    <tripinfo id="right_53" depart="542.00" departLane="51o_0" departPos="5.10" departSpeed="0.00" departDelay="2.00" arrival="658.00" arrivalLane="52i_0" arrivalPos="6.00" arrivalSpeed="10.61" duration="116.00" routeLength="1016.11" waitingTime="1.00" waitingCount="1" stopTime="0.00" timeLoss="43.11" rerouteNo="0" devices="tripinfo_right_53" vType="typeWE" speedFactor="1.17" vaporized=""/>
    <tripinfo id="right_54" depart="547.00" departLane="51o_0" departPos="5.10" departSpeed="0.00" departDelay="2.00" arrival="660.00" arrivalLane="52i_0" arrivalPos="6.00" arrivalSpeed="11.31" duration="113.00" routeLength="1016.11" waitingTime="0.00" waitingCount="0" stopTime="0.00" timeLoss="34.18" rerouteNo="0" devices="tripinfo_right_54" vType="typeWE" speedFactor="1.02" vaporized=""/>
    <tripinfo id="right_56" depart="554.00" departLane="51o_0" departPos="5.10" departSpeed="0.00" departDelay="0.00" arrival="662.00" arrivalLane="52i_0" arrivalPos="6.00" arrivalSpeed="11.54" duration="108.00" routeLength="1016.11" waitingTime="0.00" waitingCount="0" stopTime="0.00" timeLoss="28.34" rerouteNo="0" devices="tripinfo_right_56" vType="typeWE" speedFactor="1.00" vaporized=""/>
    <tripinfo id="right_58" depart="559.00" departLane="51o_0" departPos="5.10" departSpeed="0.00" departDelay="0.00" arrival="664.00" arrivalLane="52i_0" arrivalPos="6.00" arrivalSpeed="10.86" duration="105.00" routeLength="1016.11" waitingTime="0.00" waitingCount="0" stopTime="0.00" timeLoss="20.30" rerouteNo="0" devices="tripinfo_right_58" vType="typeWE" speedFactor="0.90" vaporized=""/>
    <tripinfo id="down_52" depart="535.00" departLane="54o_0" departPos="5.10" departSpeed="0.00" departDelay="0.00" arrival="692.00" arrivalLane="53i_0" arrivalPos="6.00" arrivalSpeed="9.73" duration="157.00" routeLength="1016.11" waitingTime="46.00" waitingCount="1" stopTime="0.00" timeLoss="69.93" rerouteNo="0" devices="tripinfo_down_52" vType="typeNS" speedFactor="0.85" vaporized=""/>
    <tripinfo id="down_55" depart="546.00" departLane="54o_0" departPos="5.10" departSpeed="0.00" departDelay="0.00" arrival="694.00" arrivalLane="53i_0" arrivalPos="6.00" arrivalSpeed="10.08" duration="148.00" routeLength="1016.11" waitingTime="36.00" waitingCount="1" stopTime="0.00" timeLoss="72.43" rerouteNo="0" devices="tripinfo_down_55" vType="typeNS" speedFactor="1.10" vaporized=""/>
    <tripinfo id="down_57" depart="557.00" departLane="54o_0" departPos="5.10" departSpeed="0.00" departDelay="0.00" arrival="696.00" arrivalLane="53i_0" arrivalPos="6.00" arrivalSpeed="10.91" duration="139.00" routeLength="1016.11" waitingTime="26.00" waitingCount="1" stopTime="0.00" timeLoss="59.45" rerouteNo="0" devices="tripinfo_down_57" vType="typeNS" speedFactor="1.00" vaporized=""/>
    <tripinfo id="right_59" depart="582.00" departLane="51o_0" departPos="5.10" departSpeed="0.00" departDelay="0.00" arrival="726.00" arrivalLane="52i_0" arrivalPos="6.00" arrivalSpeed="13.26" duration="144.00" routeLength="1016.11" waitingTime="46.00" waitingCount="1" stopTime="0.00" timeLoss="69.94" rerouteNo="0" devices="tripinfo_right_59" vType="typeWE" speedFactor="1.14" vaporized=""/>
    <tripinfo id="right_61" depart="639.00" departLane="51o_0" departPos="5.10" departSpeed="0.00" departDelay="0.00" arrival="734.00" arrivalLane="52i_0" arrivalPos="6.00" arrivalSpeed="11.06" duration="95.00" routeLength="1016.11" waitingTime="0.00" waitingCount="0" stopTime="0.00" timeLoss="14.31" rerouteNo="0" devices="tripinfo_right_61" vType="typeWE" speedFactor="0.97" vaporized=""/>
    <tripinfo id="right_62" depart="647.00" departLane="51o_0" departPos="5.10" departSpeed="0.00" departDelay="0.00" arrival="737.00" arrivalLane="52i_0" arrivalPos="6.00" arrivalSpeed="12.47" duration="90.00" routeLength="1016.11" waitingTime="0.00" waitingCount="0" stopTime="0.00" timeLoss="13.70" rerouteNo="0" devices="tripinfo_right_62" vType="typeWE" speedFactor="1.08" vaporized=""/>
    <tripinfo id="right_65" depart="664.00" departLane="51o_0" departPos="5.10" departSpeed="0.00" departDelay="0.00" arrival="757.00" arrivalLane="52i_0" arrivalPos="6.00" arrivalSpeed="11.66" duration="93.00" routeLength="1016.11" waitingTime="0.00" waitingCount="0" stopTime="0.00" timeLoss="12.57" rerouteNo="0" devices="tripinfo_right_65" vType="typeWE" speedFactor="0.99" vaporized=""/>
    <tripinfo id="down_60" depart="634.00" departLane="54o_0" departPos="5.10" departSpeed="0.00" departDelay="0.00" arrival="775.00" arrivalLane="53i_0" arrivalPos="6.00" arrivalSpeed="11.92" duration="141.00" routeLength="1016.11" waitingTime="38.00" waitingCount="1" stopTime="0.00" timeLoss="62.54" rerouteNo="0" devices="tripinfo_down_60" vType="typeNS" speedFactor="1.02" vaporized=""/>
    <tripinfo id="down_63" depart="647.00" departLane="54o_0" departPos="5.10" departSpeed="0.00" departDelay="0.00" arrival="777.00" arrivalLane="53i_0" arrivalPos="6.00" arrivalSpeed="12.54" duration="130.00" routeLength="1016.11" waitingTime="25.00" waitingCount="1" stopTime="0.00" timeLoss="55.04" rerouteNo="0" devices="tripinfo_down_63" vType="typeNS" speedFactor="1.12" vaporized=""/>
    <tripinfo id="down_64" depart="654.00" departLane="54o_0" departPos="5.10" departSpeed="0.00" departDelay="0.00" arrival="779.00" arrivalLane="53i_0" arrivalPos="6.00" arrivalSpeed="11.77" duration="125.00" routeLength="1016.11" waitingTime="22.00" waitingCount="1" stopTime="0.00" timeLoss="46.26" rerouteNo="0" devices="tripinfo_down_64" vType="typeNS" speedFactor="1.02" vaporized=""/>
    <tripinfo id="down_66" depart="697.00" departLane="54o_0" departPos="5.10" departSpeed="0.00" departDelay="0.00" arrival="793.00" arrivalLane="53i_0" arrivalPos="6.00" arrivalSpeed="10.77" duration="96.00" routeLength="1016.11" waitingTime="0.00" waitingCount="0" stopTime="0.00" timeLoss="13.59" rerouteNo="0" devices="tripinfo_down_66" vType="typeNS" speedFactor="0.94" vaporized=""/>
    <tripinfo id="down_68" depart="712.00" departLane="54o_0" departPos="5.10" departSpeed="0.00" departDelay="0.00" arrival="812.00" arrivalLane="53i_0" arrivalPos="6.00" arrivalSpeed="10.33" duration="100.00" routeLength="1016.11" waitingTime="0.00" waitingCount="0" stopTime="0.00" timeLoss="14.51" rerouteNo="0" devices="tripinfo_down_68" vType="typeNS" speedFactor="0.88" vaporized=""/>
    <tripinfo id="right_67" depart="700.00" departLane="51o_0" departPos="6.00" departSpeed="0.00" departDelay="0.00" arrival="821.00" arrivalLane="52i_0" arrivalPos="6.00" arrivalSpeed="11.67" duration="121.00" routeLength="1015.21" waitingTime="19.00" waitingCount="1" stopTime="0.00" timeLoss="49.31" rerouteNo="0" devices="tripinfo_right_67" vType="emerWE" speedFactor="1.00" vaporized=""/>
    <tripinfo id="right_71" depart="739.00" departLane="51o_0" departPos="5.10" departSpeed="0.00" departDelay="0.00" arrival="831.00" arrivalLane="52i_0" arrivalPos="6.00" arrivalSpeed="11.93" duration="92.00" routeLength="1016.11" waitingTime="0.00" waitingCount="0" stopTime="0.00" timeLoss="14.40" rerouteNo="0" devices="tripinfo_right_71" vType="typeWE" speedFactor="1.04" vaporized=""/>
    <tripinfo id="right_72" depart="752.00" departLane="51o_0" departPos="5.10" departSpeed="0.00" departDelay="0.00" arrival="844.00" arrivalLane="52i_0" arrivalPos="6.00" arrivalSpeed="12.23" duration="92.00" routeLength="1016.11" waitingTime="0.00" waitingCount="0" stopTime="0.00" timeLoss="13.05" rerouteNo="0" devices="tripinfo_right_72" vType="typeWE" speedFactor="1.02" vaporized=""/>
    <tripinfo id="right_73" depart="757.00" departLane="51o_0" departPos="5.10" departSpeed="0.00" departDelay="2.00" arrival="850.00" arrivalLane="52i_0" arrivalPos="6.00" arrivalSpeed="11.78" duration="93.00" routeLength="1016.11" waitingTime="0.00" waitingCount="0" stopTime="0.00" timeLoss="14.40" rerouteNo="0" devices="tripinfo_right_73" vType="typeWE" speedFactor="1.02" vaporized=""/>
    <tripinfo id="down_69" depart="735.00" departLane="54o_0" departPos="5.10" departSpeed="0.00" departDelay="0.00" arrival="870.00" arrivalLane="53i_0" arrivalPos="6.00" arrivalSpeed="11.20" duration="135.00" routeLength="1016.11" waitingTime="26.00" waitingCount="1" stopTime="0.00" timeLoss="50.72" rerouteNo="0" devices="tripinfo_down_69" vType="typeNS" speedFactor="0.91" vaporized=""/>
    <tripinfo id="down_70" depart="740.00" departLane="54o_0" departPos="5.10" departSpeed="0.00" departDelay="4.00" arrival="872.00" arrivalLane="53i_0" arrivalPos="6.00" arrivalSpeed="11.18" duration="132.00" routeLength="1016.11" waitingTime="23.00" waitingCount="1" stopTime="0.00" timeLoss="48.06" rerouteNo="0" devices="tripinfo_down_70" vType="typeNS" speedFactor="0.91" vaporized=""/>